# vtk DataFile Version 4.2
vtk output
ASCII
DATASET POLYDATA
POINTS 4512 float
5.23829e-32 6.14799e-32 -2.03593e-31 2 8.30177e-32 -2.27159e-31 2 2.00001 0.0297308 
-4.29199e-32 2 -1.92522e-31 2 8.30177e-32 -2.27159e-31 4 -1.53831e-32 4.39452e-31 
4.00001 2.00003 0.111128 2 2.00001 0.0297308 4 -1.53831e-32 4.39452e-31 
6 -7.90296e-32 1.61583e-30 6.00001 2.00007 0.219645 4.00001 2.00003 0.111128 
6 -7.90296e-32 1.61583e-30 8 -6.7361e-32 2.66999e-30 8 2.00011 0.333171 
6.00001 2.00007 0.219645 8 -6.7361e-32 2.66999e-30 10 -5.04827e-32 3.6485e-30 
10 2.00015 0.442771 8 2.00011 0.333171 10 -5.04827e-32 3.6485e-30 
12 -2.34174e-32 4.50564e-30 12 2.00018 0.543324 10 2.00015 0.442771 
12 -2.34174e-32 4.50564e-30 14 -5.14714e-33 5.25395e-30 14 2.00021 0.63182 
12 2.00018 0.543324 14 -5.14714e-33 5.25395e-30 16 1.20871e-32 5.87418e-30 
16 2.00024 0.706206 14 2.00021 0.63182 16 1.20871e-32 5.87418e-30 
18 2.29909e-32 6.36425e-30 18 2.00025 0.765116 16 2.00024 0.706206 
18 2.29909e-32 6.36425e-30 20 3.21115e-32 6.71656e-30 20 2.00027 0.807675 
18 2.00025 0.765116 20 3.21115e-32 6.71656e-30 22 3.65897e-32 6.92891e-30 
22 2.00028 0.833375 20 2.00027 0.807675 22 3.65897e-32 6.92891e-30 
24 3.8811e-32 6.99997e-30 24 2.00028 0.841967 22 2.00028 0.833375 
24 3.8811e-32 6.99997e-30 26 3.65897e-32 6.92891e-30 26 2.00028 0.833375 
24 2.00028 0.841967 26 3.65897e-32 6.92891e-30 28 3.21115e-32 6.71656e-30 
28 2.00027 0.807675 26 2.00028 0.833375 28 3.21115e-32 6.71656e-30 
30 2.29909e-32 6.36425e-30 30 2.00025 0.765116 28 2.00027 0.807675 
30 2.29909e-32 6.36425e-30 32 1.20871e-32 5.87418e-30 32 2.00024 0.706206 
30 2.00025 0.765116 32 1.20871e-32 5.87418e-30 34 -5.14714e-33 5.25395e-30 
34 2.00021 0.63182 32 2.00024 0.706206 34 -5.14714e-33 5.25395e-30 
36 -2.34174e-32 4.50564e-30 36 2.00018 0.543324 34 2.00021 0.63182 
36 -2.34174e-32 4.50564e-30 38 -5.04827e-32 3.6485e-30 38 2.00015 0.442771 
36 2.00018 0.543324 38 -5.04827e-32 3.6485e-30 40 -6.7361e-32 2.66999e-30 
40 2.00011 0.333171 38 2.00015 0.442771 40 -6.7361e-32 2.66999e-30 
42 -7.90296e-32 1.61583e-30 42 2.00007 0.219645 40 2.00011 0.333171 
42 -7.90296e-32 1.61583e-30 44 -1.53831e-32 4.39452e-31 44 2.00003 0.111128 
42 2.00007 0.219645 44 -1.53831e-32 4.39452e-31 46 8.30177e-32 -2.27159e-31 
46 2.00001 0.0297308 44 2.00003 0.111128 46 8.30177e-32 -2.27159e-31 
48 6.14799e-32 -2.03593e-31 48 2 -1.92522e-31 46 2.00001 0.0297308 
-4.29199e-32 2 -1.92522e-31 2 2.00001 0.0297308 1.99999 4.00001 0.103444 
-3.28867e-31 4 4.74595e-31 2 2.00001 0.0297308 4.00001 2.00003 0.111128 
3.99998 4.00004 0.367024 1.99999 4.00001 0.103444 4.00001 2.00003 0.111128 
6.00001 2.00007 0.219645 5.99997 4.00008 0.706765 3.99998 4.00004 0.367024 
6.00001 2.00007 0.219645 8 2.00011 0.333171 7.99996 4.00013 1.06525 
5.99997 4.00008 0.706765 8 2.00011 0.333171 10 2.00015 0.442771 
9.99996 4.00017 1.41232 7.99996 4.00013 1.06525 10 2.00015 0.442771 
12 2.00018 0.543324 12 4.00022 1.73162 9.99996 4.00017 1.41232 
12 2.00018 0.543324 14 2.00021 0.63182 14 4.00025 2.01289 
12 4.00022 1.73162 14 2.00021 0.63182 16 2.00024 0.706206 
16 4.00028 2.2494 14 4.00025 2.01289 16 2.00024 0.706206 
18 2.00025 0.765116 18 4.0003 2.43668 16 4.00028 2.2494 
18 2.00025 0.765116 20 2.00027 0.807675 20 4.00032 2.57194 
18 4.0003 2.43668 20 2.00027 0.807675 22 2.00028 0.833375 
22 4.00033 2.6536 20 4.00032 2.57194 22 2.00028 0.833375 
24 2.00028 0.841967 24 4.00033 2.6809 22 4.00033 2.6536 
24 2.00028 0.841967 26 2.00028 0.833375 26 4.00033 2.6536 
24 4.00033 2.6809 26 2.00028 0.833375 28 2.00027 0.807675 
28 4.00032 2.57194 26 4.00033 2.6536 28 2.00027 0.807675 
30 2.00025 0.765116 30 4.0003 2.43668 28 4.00032 2.57194 
30 2.00025 0.765116 32 2.00024 0.706206 32 4.00028 2.2494 
30 4.0003 2.43668 32 2.00024 0.706206 34 2.00021 0.63182 
34 4.00025 2.01289 32 4.00028 2.2494 34 2.00021 0.63182 
36 2.00018 0.543324 36 4.00022 1.73162 34 4.00025 2.01289 
36 2.00018 0.543324 38 2.00015 0.442771 38 4.00017 1.41232 
36 4.00022 1.73162 38 2.00015 0.442771 40 2.00011 0.333171 
40 4.00013 1.06525 38 4.00017 1.41232 40 2.00011 0.333171 
42 2.00007 0.219645 42 4.00008 0.706765 40 4.00013 1.06525 
42 2.00007 0.219645 44 2.00003 0.111128 44 4.00004 0.367024 
42 4.00008 0.706765 44 2.00003 0.111128 46 2.00001 0.0297308 
46 4.00001 0.103444 44 4.00004 0.367024 46 2.00001 0.0297308 
48 2 -1.92522e-31 48 4 4.74595e-31 46 4.00001 0.103444 
-3.28867e-31 4 4.74595e-31 1.99999 4.00001 0.103444 1.99998 6.00001 0.175842 
-6.74716e-31 6 1.44108e-30 1.99999 4.00001 0.103444 3.99998 4.00004 0.367024 
3.99995 6.00003 0.605861 1.99998 6.00001 0.175842 3.99998 4.00004 0.367024 
5.99997 4.00008 0.706765 5.99993 6.00006 1.14428 3.99995 6.00003 0.605861 
5.99997 4.00008 0.706765 7.99996 4.00013 1.06525 7.99992 6.00008 1.71275 
5.99993 6.00006 1.14428 7.99996 4.00013 1.06525 9.99996 4.00017 1.41232 
9.99991 6.00011 2.26502 7.99992 6.00008 1.71275 9.99996 4.00017 1.41232 
12 4.00022 1.73162 11.9999 6.00013 2.77404 9.99991 6.00011 2.26502 
12 4.00022 1.73162 14 4.00025 2.01289 13.9999 6.00015 3.22274 
11.9999 6.00013 2.77404 14 4.00025 2.01289 16 4.00028 2.2494 
15.9999 6.00017 3.59988 13.9999 6.00015 3.22274 16 4.00028 2.2494 
18 4.0003 2.43668 17.9999 6.00018 3.89827 15.9999 6.00017 3.59988 
18 4.0003 2.43668 20 4.00032 2.57194 20 6.00019 4.11356 
17.9999 6.00018 3.89827 20 4.00032 2.57194 22 4.00033 2.6536 
22 6.0002 4.24342 20 6.00019 4.11356 22 4.00033 2.6536 
24 4.00033 2.6809 24 6.0002 4.28681 22 6.0002 4.24342 
24 4.00033 2.6809 26 4.00033 2.6536 26 6.0002 4.24342 
24 6.0002 4.28681 26 4.00033 2.6536 28 4.00032 2.57194 
28 6.00019 4.11356 26 6.0002 4.24342 28 4.00032 2.57194 
30 4.0003 2.43668 30.0001 6.00018 3.89827 28 6.00019 4.11356 
30 4.0003 2.43668 32 4.00028 2.2494 32.0001 6.00017 3.59988 
30.0001 6.00018 3.89827 32 4.00028 2.2494 34 4.00025 2.01289 
34.0001 6.00015 3.22274 32.0001 6.00017 3.59988 34 4.00025 2.01289 
36 4.00022 1.73162 36.0001 6.00013 2.77404 34.0001 6.00015 3.22274 
36 4.00022 1.73162 38 4.00017 1.41232 38.0001 6.00011 2.26502 
36.0001 6.00013 2.77404 38 4.00017 1.41232 40 4.00013 1.06525 
40.0001 6.00008 1.71275 38.0001 6.00011 2.26502 40 4.00013 1.06525 
42 4.00008 0.706765 42.0001 6.00006 1.14428 40.0001 6.00008 1.71275 
42 4.00008 0.706765 44 4.00004 0.367024 44 6.00003 0.605861 
42.0001 6.00006 1.14428 44 4.00004 0.367024 46 4.00001 0.103444 
46 6.00001 0.175842 44 6.00003 0.605861 46 4.00001 0.103444 
48 4 4.74595e-31 48 6 1.44108e-30 46 6.00001 0.175842 
-6.74716e-31 6 1.44108e-30 1.99998 6.00001 0.175842 1.99997 8 0.202619 
-8.21907e-31 8 1.83143e-30 1.99998 6.00001 0.175842 3.99995 6.00003 0.605861 
3.99994 8 0.692057 1.99997 8 0.202619 3.99995 6.00003 0.605861 
5.99993 6.00006 1.14428 5.99992 8 1.29606 3.99994 8 0.692057 
5.99993 6.00006 1.14428 7.99992 6.00008 1.71275 7.9999 8 1.93071 
5.99992 8 1.29606 7.99992 6.00008 1.71275 9.99991 6.00011 2.26502 
9.9999 7.99999 2.54783 7.9999 8 1.93071 9.99991 6.00011 2.26502 
11.9999 6.00013 2.77404 11.9999 7.99998 3.11682 9.9999 7.99999 2.54783 
11.9999 6.00013 2.77404 13.9999 6.00015 3.22274 13.9999 7.99998 3.61789 
11.9999 7.99998 3.11682 13.9999 6.00015 3.22274 15.9999 6.00017 3.59988 
15.9999 7.99997 4.0382 13.9999 7.99998 3.61789 15.9999 6.00017 3.59988 
17.9999 6.00018 3.89827 17.9999 7.99997 4.36983 15.9999 7.99997 4.0382 
17.9999 6.00018 3.89827 20 6.00019 4.11356 20 7.99996 4.60846 
17.9999 7.99997 4.36983 20 6.00019 4.11356 22 6.0002 4.24342 
22 7.99996 4.75208 20 7.99996 4.60846 22 6.0002 4.24342 
24 6.0002 4.28681 24 7.99996 4.8 22 7.99996 4.75208 
24 6.0002 4.28681 26 6.0002 4.24342 26 7.99996 4.75208 
24 7.99996 4.8 26 6.0002 4.24342 28 6.00019 4.11356 
28 7.99996 4.60846 26 7.99996 4.75208 28 6.00019 4.11356 
30.0001 6.00018 3.89827 30.0001 7.99997 4.36983 28 7.99996 4.60846 
30.0001 6.00018 3.89827 32.0001 6.00017 3.59988 32.0001 7.99997 4.0382 
30.0001 7.99997 4.36983 32.0001 6.00017 3.59988 34.0001 6.00015 3.22274 
34.0001 7.99998 3.61789 32.0001 7.99997 4.0382 34.0001 6.00015 3.22274 
36.0001 6.00013 2.77404 36.0001 7.99998 3.11682 34.0001 7.99998 3.61789 
36.0001 6.00013 2.77404 38.0001 6.00011 2.26502 38.0001 7.99999 2.54783 
36.0001 7.99998 3.11682 38.0001 6.00011 2.26502 40.0001 6.00008 1.71275 
40.0001 8 1.93071 38.0001 7.99999 2.54783 40.0001 6.00008 1.71275 
42.0001 6.00006 1.14428 42.0001 8 1.29606 40.0001 8 1.93071 
42.0001 6.00006 1.14428 44 6.00003 0.605861 44.0001 8 0.692057 
42.0001 8 1.29606 44 6.00003 0.605861 46 6.00001 0.175842 
46 8 0.202619 44.0001 8 0.692057 46 6.00001 0.175842 
48 6 1.44108e-30 48 8 1.83143e-30 46 8 0.202619 
-8.21907e-31 8 1.83143e-30 1.99997 8 0.202619 1.99998 10 0.167013 
-6.81369e-31 10 1.56469e-30 1.99997 8 0.202619 3.99994 8 0.692057 
3.99995 9.99997 0.568453 1.99998 10 0.167013 3.99994 8 0.692057 
5.99992 8 1.29606 5.99993 9.99994 1.06109 3.99995 9.99997 0.568453 
5.99992 8 1.29606 7.9999 8 1.93071 7.99992 9.9999 1.57703 
5.99993 9.99994 1.06109 7.9999 8 1.93071 9.9999 7.99999 2.54783 
9.99992 9.99987 2.07778 7.99992 9.9999 1.57703 9.9999 7.99999 2.54783 
11.9999 7.99998 3.11682 11.9999 9.99983 2.53838 9.99992 9.99987 2.07778 
11.9999 7.99998 3.11682 13.9999 7.99998 3.61789 13.9999 9.99979 2.94209 
11.9999 9.99983 2.53838 13.9999 7.99998 3.61789 15.9999 7.99997 4.0382 
15.9999 9.99977 3.27849 13.9999 9.99979 2.94209 15.9999 7.99997 4.0382 
17.9999 7.99997 4.36983 18 9.99974 3.54189 15.9999 9.99977 3.27849 
17.9999 7.99997 4.36983 20 7.99996 4.60846 20 9.99973 3.72999 
18 9.99974 3.54189 20 7.99996 4.60846 22 7.99996 4.75208 
22 9.99971 3.84253 20 9.99973 3.72999 22 7.99996 4.75208 
24 7.99996 4.8 24 9.99971 3.87996 22 9.99971 3.84253 
24 7.99996 4.8 26 7.99996 4.75208 26 9.99971 3.84253 
24 9.99971 3.87996 26 7.99996 4.75208 28 7.99996 4.60846 
28 9.99973 3.72999 26 9.99971 3.84253 28 7.99996 4.60846 
[...]
POINT_DATA 4512
SCALARS VariableScalar float
LOOKUP_TABLE default
1.09131e-32 2.73029e-32 8.42337e-07 -8.94165e-33 2.73029e-32 5.16901e-32 1.4214e-06 8.42337e-07 5.16901e-32 
6.28704e-32 1.25997e-06 1.4214e-06 6.28704e-32 6.07674e-32 6.68744e-07 1.25997e-06 6.07674e-32 5.37407e-32 
-3.86451e-09 6.68744e-07 5.37407e-32 4.41944e-32 -5.59762e-07 -3.86451e-09 4.41944e-32 3.49434e-32 -9.09066e-07 
-5.59762e-07 3.49434e-32 2.6235e-32 -1.03605e-06 -9.09066e-07 2.6235e-32 1.86428e-32 -9.63867e-07 -1.03605e-06 
1.86428e-32 1.18511e-32 -7.33253e-07 -9.63867e-07 1.18511e-32 5.76549e-33 -3.9419e-07 -7.33253e-07 5.76549e-33 
-1.90577e-43 -1.70018e-17 -3.9419e-07 -1.90577e-43 -5.76549e-33 3.9419e-07 -1.70018e-17 -5.76549e-33 -1.18511e-32 
7.33253e-07 3.9419e-07 -1.18511e-32 -1.86428e-32 9.63867e-07 7.33253e-07 -1.86428e-32 -2.6235e-32 1.03605e-06 
9.63867e-07 -2.6235e-32 -3.49434e-32 9.09066e-07 1.03605e-06 -3.49434e-32 -4.41944e-32 5.59762e-07 9.09066e-07 
-4.41944e-32 -5.37407e-32 3.86451e-09 5.59762e-07 -5.37407e-32 -6.07674e-32 -6.68744e-07 3.86451e-09 -6.07674e-32 
-6.28704e-32 -1.25997e-06 -6.68744e-07 -6.28704e-32 -5.16901e-32 -1.4214e-06 -1.25997e-06 -5.16901e-32 -2.73029e-32 
-8.42337e-07 -1.4214e-06 -2.73029e-32 -1.09131e-32 8.94165e-33 -8.42337e-07 -8.94165e-33 8.42337e-07 -1.85773e-06 
-6.8514e-32 8.42337e-07 1.4214e-06 -4.10363e-06 -1.85773e-06 1.4214e-06 1.25997e-06 -6.32038e-06 -4.10363e-06 
1.25997e-06 6.68744e-07 -7.90063e-06 -6.32038e-06 6.68744e-07 -3.86451e-09 -8.876e-06 -7.90063e-06 -3.86451e-09 
-5.59762e-07 -9.09939e-06 -8.876e-06 -5.59762e-07 -9.09066e-07 -8.67505e-06 -9.09939e-06 -9.09066e-07 -1.03605e-06 
-7.65025e-06 -8.67505e-06 -1.03605e-06 -9.63867e-07 -6.15859e-06 -7.65025e-06 -9.63867e-07 -7.33253e-07 -4.30277e-06 
-6.15859e-06 -7.33253e-07 -3.9419e-07 -2.2117e-06 -4.30277e-06 -3.9419e-07 -1.70018e-17 -4.20842e-18 -2.2117e-06 
-1.70018e-17 3.9419e-07 2.2117e-06 -4.20842e-18 3.9419e-07 7.33253e-07 4.30277e-06 2.2117e-06 7.33253e-07 
9.63867e-07 6.15859e-06 4.30277e-06 9.63867e-07 1.03605e-06 7.65025e-06 6.15859e-06 1.03605e-06 9.09066e-07 
8.67505e-06 7.65025e-06 9.09066e-07 5.59762e-07 9.09939e-06 8.67505e-06 5.59762e-07 3.86451e-09 8.876e-06 
9.09939e-06 3.86451e-09 -6.68744e-07 7.90063e-06 8.876e-06 -6.68744e-07 -1.25997e-06 6.32038e-06 7.90063e-06 
-1.25997e-06 -1.4214e-06 4.10363e-06 6.32038e-06 -1.4214e-06 -8.42337e-07 1.85773e-06 4.10363e-06 -8.42337e-07 
8.94165e-33 6.8514e-32 1.85773e-06 -6.8514e-32 -1.85773e-06 -4.80707e-06 -1.40566e-31 -1.85773e-06 -4.10363e-06 
-9.88677e-06 -4.80707e-06 -4.10363e-06 -6.32038e-06 -1.39899e-05 -9.88677e-06 -6.32038e-06 -7.90063e-06 -1.67633e-05 
-1.39899e-05 -7.90063e-06 -8.876e-06 -1.78811e-05 -1.67633e-05 -8.876e-06 -9.09939e-06 -1.77265e-05 -1.78811e-05 
-9.09939e-06 -8.67505e-06 -1.63826e-05 -1.77265e-05 -8.67505e-06 -7.65025e-06 -1.41631e-05 -1.63826e-05 -7.65025e-06 
-6.15859e-06 -1.12131e-05 -1.41631e-05 -6.15859e-06 -4.30277e-06 -7.76145e-06 -1.12131e-05 -4.30277e-06 -2.2117e-06 
-3.96239e-06 -7.76145e-06 -2.2117e-06 -4.20842e-18 2.73696e-18 -3.96239e-06 -4.20842e-18 2.2117e-06 3.96239e-06 
2.73696e-18 2.2117e-06 4.30277e-06 7.76145e-06 3.96239e-06 4.30277e-06 6.15859e-06 1.12131e-05 7.76145e-06 
6.15859e-06 7.65025e-06 1.41631e-05 1.12131e-05 7.65025e-06 8.67505e-06 1.63826e-05 1.41631e-05 8.67505e-06 
9.09939e-06 1.77265e-05 1.63826e-05 9.09939e-06 8.876e-06 1.78811e-05 1.77265e-05 8.876e-06 7.90063e-06 
1.67633e-05 1.78811e-05 7.90063e-06 6.32038e-06 1.39899e-05 1.67633e-05 6.32038e-06 4.10363e-06 9.88677e-06 
1.39899e-05 4.10363e-06 1.85773e-06 4.80707e-06 9.88677e-06 1.85773e-06 6.8514e-32 1.40566e-31 4.80707e-06 
-1.40566e-31 -4.80707e-06 -6.01659e-06 -1.71231e-31 -4.80707e-06 -9.88677e-06 -1.244e-05 -6.01659e-06 -9.88677e-06 
-1.39899e-05 -1.73601e-05 -1.244e-05 -1.39899e-05 -1.67633e-05 -2.03347e-05 -1.73601e-05 -1.67633e-05 -1.78811e-05 
-2.15635e-05 -2.03347e-05 -1.78811e-05 -1.77265e-05 -2.10809e-05 -2.15635e-05 -1.77265e-05 -1.63826e-05 -1.93766e-05 
-2.10809e-05 -1.63826e-05 -1.41631e-05 -1.66044e-05 -1.93766e-05 -1.41631e-05 -1.12131e-05 -1.31031e-05 -1.66044e-05 
-1.12131e-05 -7.76145e-06 -9.02538e-06 -1.31031e-05 -7.76145e-06 -3.96239e-06 -4.60441e-06 -9.02538e-06 -3.96239e-06 
2.73696e-18 -1.57685e-17 -4.60441e-06 2.73696e-18 3.96239e-06 4.60441e-06 -1.57685e-17 3.96239e-06 7.76145e-06 
9.02538e-06 4.60441e-06 7.76145e-06 1.12131e-05 1.31031e-05 9.02538e-06 1.12131e-05 1.41631e-05 1.66044e-05 
1.31031e-05 1.41631e-05 1.63826e-05 1.93766e-05 1.66044e-05 1.63826e-05 1.77265e-05 2.10809e-05 1.93766e-05 
1.77265e-05 1.78811e-05 2.15635e-05 2.10809e-05 1.78811e-05 1.67633e-05 2.03347e-05 2.15635e-05 1.67633e-05 
1.39899e-05 1.73601e-05 2.03347e-05 1.39899e-05 9.88677e-06 1.244e-05 1.73601e-05 9.88677e-06 4.80707e-06 
6.01659e-06 1.244e-05 4.80707e-06 1.40566e-31 1.71231e-31 6.01659e-06 -1.71231e-31 -6.01659e-06 -5.02624e-06 
-1.41952e-31 -6.01659e-06 -1.244e-05 -1.03488e-05 -5.02624e-06 -1.244e-05 -1.73601e-05 -1.44046e-05 -1.03488e-05 
-1.73601e-05 -2.03347e-05 -1.67796e-05 -1.44046e-05 -2.03347e-05 -2.15635e-05 -1.75682e-05 -1.67796e-05 -2.15635e-05 
-2.10809e-05 -1.71561e-05 -1.75682e-05 -2.10809e-05 -1.93766e-05 -1.5642e-05 -1.71561e-05 -1.93766e-05 -1.66044e-05 
-1.34003e-05 -1.5642e-05 -1.66044e-05 -1.31031e-05 -1.05221e-05 -1.34003e-05 -1.31031e-05 -9.02538e-06 -7.252e-06 
-1.05221e-05 -9.02538e-06 -4.60441e-06 -3.6888e-06 -7.252e-06 -4.60441e-06 -1.57685e-17 -1.08312e-17 -3.6888e-06 
-1.57685e-17 4.60441e-06 3.6888e-06 -1.08312e-17 4.60441e-06 9.02538e-06 7.252e-06 3.6888e-06 9.02538e-06 
1.31031e-05 1.05221e-05 7.252e-06 1.31031e-05 1.66044e-05 1.34003e-05 1.05221e-05 1.66044e-05 1.93766e-05 
1.5642e-05 1.34003e-05 1.93766e-05 2.10809e-05 1.71561e-05 1.5642e-05 2.10809e-05 2.15635e-05 1.75682e-05 
1.71561e-05 2.15635e-05 2.03347e-05 1.67796e-05 1.75682e-05 2.03347e-05 1.73601e-05 1.44046e-05 1.67796e-05 
1.73601e-05 1.244e-05 1.03488e-05 1.44046e-05 1.244e-05 6.01659e-06 5.02624e-06 1.03488e-05 6.01659e-06 
1.71231e-31 1.41952e-31 5.02624e-06 -1.41952e-31 -5.02624e-06 -2.11211e-06 -6.13223e-32 -5.02624e-06 -1.03488e-05 
-4.35934e-06 -2.11211e-06 -1.03488e-05 -1.44046e-05 -5.99381e-06 -4.35934e-06 -1.44046e-05 -1.67796e-05 -6.86832e-06 
-5.99381e-06 -1.67796e-05 -1.75682e-05 -7.10996e-06 -6.86832e-06 -1.75682e-05 -1.71561e-05 -6.80852e-06 -7.10996e-06 
-1.71561e-05 -1.5642e-05 -6.19585e-06 -6.80852e-06 -1.5642e-05 -1.34003e-05 -5.24465e-06 -6.19585e-06 -1.34003e-05 
-1.05221e-05 -4.12737e-06 -5.24465e-06 -1.05221e-05 -7.252e-06 -2.82454e-06 -4.12737e-06 -7.252e-06 -3.6888e-06 
-1.44239e-06 -2.82454e-06 -3.6888e-06 -1.08312e-17 -5.58481e-17 -1.44239e-06 -1.08312e-17 3.6888e-06 1.44239e-06 
-5.58481e-17 3.6888e-06 7.252e-06 2.82454e-06 1.44239e-06 7.252e-06 1.05221e-05 4.12737e-06 2.82454e-06 
1.05221e-05 1.34003e-05 5.24465e-06 4.12737e-06 1.34003e-05 1.5642e-05 6.19585e-06 5.24465e-06 1.5642e-05 
1.71561e-05 6.80852e-06 6.19585e-06 1.71561e-05 1.75682e-05 7.10996e-06 6.80852e-06 1.75682e-05 1.67796e-05 
6.86832e-06 7.10996e-06 1.67796e-05 1.44046e-05 5.99381e-06 6.86832e-06 1.44046e-05 1.03488e-05 4.35934e-06 
5.99381e-06 1.03488e-05 5.02624e-06 2.11211e-06 4.35934e-06 5.02624e-06 1.41952e-31 6.13223e-32 2.11211e-06 
-6.13223e-32 -2.11211e-06 1.67967e-06 4.34399e-32 -2.11211e-06 -4.35934e-06 3.48072e-06 1.67967e-06 -4.35934e-06 
-5.99381e-06 4.97117e-06 3.48072e-06 -5.99381e-06 -6.86832e-06 5.97527e-06 4.97117e-06 -6.86832e-06 -7.10996e-06 
6.45944e-06 5.97527e-06 -7.10996e-06 -6.80852e-06 6.40791e-06 6.45944e-06 -6.80852e-06 -6.19585e-06 5.95844e-06 
6.40791e-06 -6.19585e-06 -5.24465e-06 5.1172e-06 5.95844e-06 -5.24465e-06 -4.12737e-06 4.05668e-06 5.1172e-06 
-4.12737e-06 -2.82454e-06 2.7868e-06 4.05668e-06 -2.82454e-06 -1.44239e-06 1.42514e-06 2.7868e-06 -1.44239e-06 
-5.58481e-17 -6.73093e-17 1.42514e-06 -5.58481e-17 1.44239e-06 -1.42514e-06 -6.73093e-17 1.44239e-06 2.82454e-06 
-2.7868e-06 -1.42514e-06 2.82454e-06 4.12737e-06 -4.05668e-06 -2.7868e-06 4.12737e-06 5.24465e-06 -5.1172e-06 
-4.05668e-06 5.24465e-06 6.19585e-06 -5.95844e-06 -5.1172e-06 6.19585e-06 6.80852e-06 -6.40791e-06 -5.95844e-06 
6.80852e-06 7.10996e-06 -6.45944e-06 -6.40791e-06 7.10996e-06 6.86832e-06 -5.97527e-06 -6.45944e-06 6.86832e-06 
5.99381e-06 -4.97117e-06 -5.97527e-06 5.99381e-06 4.35934e-06 -3.48072e-06 -4.97117e-06 4.35934e-06 2.11211e-06 
-1.67967e-06 -3.48072e-06 2.11211e-06 6.13223e-32 -4.34399e-32 -1.67967e-06 4.34399e-32 1.67967e-06 5.04554e-06 
1.36265e-31 1.67967e-06 3.48072e-06 1.04268e-05 5.04554e-06 3.48072e-06 4.97117e-06 1.46916e-05 1.04268e-05 
4.97117e-06 5.97527e-06 1.73551e-05 1.46916e-05 5.97527e-06 6.45944e-06 1.84119e-05 1.73551e-05 6.45944e-06 
6.40791e-06 1.80892e-05 1.84119e-05 6.40791e-06 5.95844e-06 1.65986e-05 1.80892e-05 5.95844e-06 5.1172e-06 
1.42487e-05 1.65986e-05 5.1172e-06 4.05668e-06 1.12067e-05 1.42487e-05 4.05668e-06 2.7868e-06 7.72371e-06 
1.12067e-05 2.7868e-06 1.42514e-06 3.9289e-06 7.72371e-06 1.42514e-06 -6.73093e-17 -8.86599e-17 3.9289e-06 
-6.73093e-17 -1.42514e-06 -3.9289e-06 -8.86599e-17 -1.42514e-06 -2.7868e-06 -7.72371e-06 -3.9289e-06 -2.7868e-06 
-4.05668e-06 -1.12067e-05 -7.72371e-06 -4.05668e-06 -5.1172e-06 -1.42487e-05 -1.12067e-05 -5.1172e-06 -5.95844e-06 
-1.65986e-05 -1.42487e-05 -5.95844e-06 -6.40791e-06 -1.80892e-05 -1.65986e-05 -6.40791e-06 -6.45944e-06 -1.84119e-05 
-1.80892e-05 -6.45944e-06 -5.97527e-06 -1.73551e-05 -1.84119e-05 -5.97527e-06 -4.97117e-06 -1.46916e-05 -1.73551e-05 
-4.97117e-06 -3.48072e-06 -1.04268e-05 -1.46916e-05 -3.48072e-06 -1.67967e-06 -5.04554e-06 -1.04268e-05 -1.67967e-06 
-4.34399e-32 -1.36265e-31 -5.04554e-06 1.36265e-31 5.04554e-06 6.81096e-06 1.85263e-31 5.04554e-06 1.04268e-05 
1.4076e-05 6.81096e-06 1.04268e-05 1.46916e-05 1.97873e-05 1.4076e-05 1.46916e-05 1.73551e-05 2.32972e-05 
1.97873e-05 1.73551e-05 1.84119e-05 2.46518e-05 2.32972e-05 1.84119e-05 1.80892e-05 2.41339e-05 2.46518e-05 
1.80892e-05 1.65986e-05 2.21311e-05 2.41339e-05 1.65986e-05 1.42487e-05 1.89458e-05 2.21311e-05 1.42487e-05 
1.12067e-05 1.49158e-05 1.89458e-05 1.12067e-05 7.72371e-06 1.02585e-05 1.49158e-05 7.72371e-06 3.9289e-06 
5.22659e-06 1.02585e-05 3.9289e-06 -8.86599e-17 -1.17319e-16 5.22659e-06 -8.86599e-17 -3.9289e-06 -5.22659e-06 
-1.17319e-16 -3.9289e-06 -7.72371e-06 -1.02585e-05 -5.22659e-06 -7.72371e-06 -1.12067e-05 -1.49158e-05 -1.02585e-05 
-1.12067e-05 -1.42487e-05 -1.89458e-05 -1.49158e-05 -1.42487e-05 -1.65986e-05 -2.21311e-05 -1.89458e-05 -1.65986e-05 
-1.80892e-05 -2.41339e-05 -2.21311e-05 -1.80892e-05 -1.84119e-05 -2.46518e-05 -2.41339e-05 -1.84119e-05 -1.73551e-05 
-2.32972e-05 -2.46518e-05 -1.73551e-05 -1.46916e-05 -1.97873e-05 -2.32972e-05 -1.46916e-05 -1.04268e-05 -1.4076e-05 
-1.97873e-05 -1.04268e-05 -5.04554e-06 -6.81096e-06 -1.4076e-05 -5.04554e-06 -1.36265e-31 -1.85263e-31 -6.81096e-06 
1.85263e-31 6.81096e-06 6.35601e-06 1.73309e-31 6.81096e-06 1.4076e-05 1.31347e-05 6.35601e-06 1.4076e-05 
1.97873e-05 1.84492e-05 1.31347e-05 1.97873e-05 2.32972e-05 2.16998e-05 1.84492e-05 2.32972e-05 2.46518e-05 
2.29272e-05 2.16998e-05 2.46518e-05 2.41339e-05 2.24326e-05 2.29272e-05 2.41339e-05 2.21311e-05 2.05402e-05 
2.24326e-05 2.21311e-05 1.89458e-05 1.75894e-05 2.05402e-05 1.89458e-05 1.49158e-05 1.38298e-05 1.75894e-05 
1.49158e-05 1.02585e-05 9.52016e-06 1.38298e-05 1.02585e-05 5.22659e-06 4.84471e-06 9.52016e-06 5.22659e-06 
-1.17319e-16 -8.23939e-17 4.84471e-06 -1.17319e-16 -5.22659e-06 -4.84471e-06 -8.23939e-17 -5.22659e-06 -1.02585e-05 
-9.52016e-06 -4.84471e-06 -1.02585e-05 -1.49158e-05 -1.38298e-05 -9.52016e-06 -1.49158e-05 -1.89458e-05 -1.75894e-05 
-1.38298e-05 -1.89458e-05 -2.21311e-05 -2.05402e-05 -1.75894e-05 -2.21311e-05 -2.41339e-05 -2.24326e-05 -2.05402e-05 
-2.41339e-05 -2.46518e-05 -2.29272e-05 -2.24326e-05 -2.46518e-05 -2.32972e-05 -2.16998e-05 -2.29272e-05 -2.32972e-05 
-1.97873e-05 -1.84492e-05 -2.16998e-05 -1.97873e-05 -1.4076e-05 -1.31347e-05 -1.84492e-05 -1.4076e-05 -6.81096e-06 
-6.35601e-06 -1.31347e-05 -6.81096e-06 -1.85263e-31 -1.73309e-31 -6.35601e-06 1.73309e-31 6.35601e-06 3.80734e-06 
1.03926e-31 6.35601e-06 1.31347e-05 7.86805e-06 3.80734e-06 1.31347e-05 1.84492e-05 1.10484e-05 7.86805e-06 
1.84492e-05 2.16998e-05 1.29874e-05 1.10484e-05 2.16998e-05 2.29272e-05 1.37178e-05 1.29874e-05 2.29272e-05 
2.24326e-05 1.34111e-05 1.37178e-05 2.24326e-05 2.05402e-05 1.2281e-05 1.34111e-05 2.05402e-05 1.75894e-05 
1.05076e-05 1.2281e-05 1.75894e-05 1.38298e-05 8.26631e-06 1.05076e-05 1.38298e-05 9.52016e-06 5.68537e-06 
8.26631e-06 9.52016e-06 4.84471e-06 2.89555e-06 5.68537e-06 4.84471e-06 -8.23939e-17 -1.0849e-16 2.89555e-06 
-8.23939e-17 -4.84471e-06 -2.89555e-06 -1.0849e-16 -4.84471e-06 -9.52016e-06 -5.68537e-06 -2.89555e-06 -9.52016e-06 
-1.38298e-05 -8.26631e-06 -5.68537e-06 -1.38298e-05 -1.75894e-05 -1.05076e-05 -8.26631e-06 -1.75894e-05 -2.05402e-05 
-1.2281e-05 -1.05076e-05 -2.05402e-05 -2.24326e-05 -1.34111e-05 -1.2281e-05 -2.24326e-05 -2.29272e-05 -1.37178e-05 
-1.34111e-05 -2.29272e-05 -2.16998e-05 -1.29874e-05 -1.37178e-05 -2.16998e-05 -1.84492e-05 -1.10484e-05 -1.29874e-05 
-1.84492e-05 -1.31347e-05 -7.86805e-06 -1.10484e-05 -1.31347e-05 -6.35601e-06 -3.80734e-06 -7.86805e-06 -6.35601e-06 
-1.73309e-31 -1.03926e-31 -3.80734e-06 1.03926e-31 3.80734e-06 -3.75825e-17 -8.85621e-43 3.80734e-06 7.86805e-06 
-1.18255e-16 -3.75825e-17 7.86805e-06 1.10484e-05 3.76154e-18 -1.18255e-16 1.10484e-05 1.29874e-05 -4.97211e-17 
3.76154e-18 1.29874e-05 1.37178e-05 1.42099e-16 -4.97211e-17 1.37178e-05 1.34111e-05 6.66112e-17 1.42099e-16 
1.34111e-05 1.2281e-05 2.09806e-16 6.66112e-17 1.2281e-05 1.05076e-05 8.06918e-17 2.09806e-16 1.05076e-05 
8.26631e-06 1e-16 8.06918e-17 8.26631e-06 5.68537e-06 -3.41119e-18 1e-16 5.68537e-06 2.89555e-06 
-5.69146e-17 -3.41119e-18 2.89555e-06 -1.0849e-16 -6.77331e-17 -5.69146e-17 -1.0849e-16 -2.89555e-06 -1.19834e-16 
-6.77331e-17 -2.89555e-06 -5.68537e-06 -5.06037e-17 -1.19834e-16 -5.68537e-06 -8.26631e-06 -8.75707e-17 -5.06037e-17 
-8.26631e-06 -1.05076e-05 5.86414e-18 -8.75707e-17 -1.05076e-05 -1.2281e-05 -3.85828e-17 5.86414e-18 -1.2281e-05 
-1.34111e-05 4.15803e-17 -3.85828e-17 -1.34111e-05 -1.37178e-05 -2.28406e-17 4.15803e-17 -1.37178e-05 -1.29874e-05 
7.31109e-18 -2.28406e-17 -1.29874e-05 -1.10484e-05 -5.78876e-17 7.31109e-18 -1.10484e-05 -7.86805e-06 -4.78236e-17 
-5.78876e-17 -7.86805e-06 -3.80734e-06 -5.28524e-17 -4.78236e-17 -3.80734e-06 -1.03926e-31 6.78228e-43 -5.28524e-17 
-8.85621e-43 -3.75825e-17 -3.80734e-06 -1.03926e-31 -3.75825e-17 -1.18255e-16 -7.86805e-06 -3.80734e-06 -1.18255e-16 
3.76154e-18 -1.10484e-05 -7.86805e-06 3.76154e-18 -4.97211e-17 -1.29874e-05 -1.10484e-05 -4.97211e-17 1.42099e-16 
-1.37178e-05 -1.29874e-05 1.42099e-16 6.66112e-17 -1.34111e-05 -1.37178e-05 6.66112e-17 2.09806e-16 -1.2281e-05 
-1.34111e-05 2.09806e-16 8.06918e-17 -1.05076e-05 -1.2281e-05 8.06918e-17 1e-16 -8.26631e-06 -1.05076e-05 
1e-16 -3.41119e-18 -5.68537e-06 -8.26631e-06 -3.41119e-18 -5.69146e-17 -2.89555e-06 -5.68537e-06 -5.69146e-17 
-6.77331e-17 -1.01934e-16 -2.89555e-06 -6.77331e-17 -1.19834e-16 2.89555e-06 -1.01934e-16 -1.19834e-16 -5.06037e-17 
5.68537e-06 2.89555e-06 -5.06037e-17 -8.75707e-17 8.26631e-06 5.68537e-06 -8.75707e-17 5.86414e-18 1.05076e-05 
8.26631e-06 5.86414e-18 -3.85828e-17 1.2281e-05 1.05076e-05 -3.85828e-17 4.15803e-17 1.34111e-05 1.2281e-05 
4.15803e-17 -2.28406e-17 1.37178e-05 1.34111e-05 -2.28406e-17 7.31109e-18 1.29874e-05 1.37178e-05 7.31109e-18 
-5.78876e-17 1.10484e-05 1.29874e-05 -5.78876e-17 -4.78236e-17 7.86805e-06 1.10484e-05 -4.78236e-17 -5.28524e-17 
3.80734e-06 7.86805e-06 -5.28524e-17 6.78228e-43 1.03926e-31 3.80734e-06 -1.03926e-31 -3.80734e-06 -6.35601e-06 
-1.73309e-31 -3.80734e-06 -7.86805e-06 -1.31347e-05 -6.35601e-06 -7.86805e-06 -1.10484e-05 -1.84492e-05 -1.31347e-05 
-1.10484e-05 -1.29874e-05 -2.16998e-05 -1.84492e-05 -1.29874e-05 -1.37178e-05 -2.29272e-05 -2.16998e-05 -1.37178e-05 
-1.34111e-05 -2.24326e-05 -2.29272e-05 -1.34111e-05 -1.2281e-05 -2.05402e-05 -2.24326e-05 -1.2281e-05 -1.05076e-05 
-1.75894e-05 -2.05402e-05 -1.05076e-05 -8.26631e-06 -1.38298e-05 -1.75894e-05 -8.26631e-06 -5.68537e-06 -9.52016e-06 
-1.38298e-05 -5.68537e-06 -2.89555e-06 -4.84471e-06 -9.52016e-06 -2.89555e-06 -1.01934e-16 -6.27817e-17 -4.84471e-06 
-1.01934e-16 2.89555e-06 4.84471e-06 -6.27817e-17 2.89555e-06 5.68537e-06 9.52016e-06 4.84471e-06 5.68537e-06 
8.26631e-06 1.38298e-05 9.52016e-06 8.26631e-06 1.05076e-05 1.75894e-05 1.38298e-05 1.05076e-05 1.2281e-05 
2.05402e-05 1.75894e-05 1.2281e-05 1.34111e-05 2.24326e-05 2.05402e-05 1.34111e-05 1.37178e-05 2.29272e-05 
2.24326e-05 1.37178e-05 1.29874e-05 2.16998e-05 2.29272e-05 1.29874e-05 1.10484e-05 1.84492e-05 2.16998e-05 
1.10484e-05 7.86805e-06 1.31347e-05 1.84492e-05 7.86805e-06 3.80734e-06 6.35601e-06 1.31347e-05 3.80734e-06 
1.03926e-31 1.73309e-31 6.35601e-06 -1.73309e-31 -6.35601e-06 -6.81096e-06 -1.85263e-31 -6.35601e-06 -1.31347e-05 
-1.4076e-05 -6.81096e-06 -1.31347e-05 -1.84492e-05 -1.97873e-05 -1.4076e-05 -1.84492e-05 -2.16998e-05 -2.32972e-05 
-1.97873e-05 -2.16998e-05 -2.29272e-05 -2.46518e-05 -2.32972e-05 -2.29272e-05 -2.24326e-05 -2.41339e-05 -2.46518e-05 
-2.24326e-05 -2.05402e-05 -2.21311e-05 -2.41339e-05 -2.05402e-05 -1.75894e-05 -1.89458e-05 -2.21311e-05 -1.75894e-05 
-1.38298e-05 -1.49158e-05 -1.89458e-05 -1.38298e-05 -9.52016e-06 -1.02585e-05 -1.49158e-05 -9.52016e-06 -4.84471e-06 
-5.22659e-06 -1.02585e-05 -4.84471e-06 -6.27817e-17 -9.81145e-17 -5.22659e-06 -6.27817e-17 4.84471e-06 5.22659e-06 
-9.81145e-17 4.84471e-06 9.52016e-06 1.02585e-05 5.22659e-06 9.52016e-06 1.38298e-05 1.49158e-05 1.02585e-05 
1.38298e-05 1.75894e-05 1.89458e-05 1.49158e-05 1.75894e-05 2.05402e-05 2.21311e-05 1.89458e-05 2.05402e-05 
2.24326e-05 2.41339e-05 2.21311e-05 2.24326e-05 2.29272e-05 2.46518e-05 2.41339e-05 2.29272e-05 2.16998e-05 
2.32972e-05 2.46518e-05 2.16998e-05 1.84492e-05 1.97873e-05 2.32972e-05 1.84492e-05 1.31347e-05 1.4076e-05 
1.97873e-05 1.31347e-05 6.35601e-06 6.81096e-06 1.4076e-05 6.35601e-06 1.73309e-31 1.85263e-31 6.81096e-06 
-1.85263e-31 -6.81096e-06 -5.04554e-06 -1.36265e-31 -6.81096e-06 -1.4076e-05 -1.04268e-05 -5.04554e-06 -1.4076e-05 
-1.97873e-05 -1.46916e-05 -1.04268e-05 -1.97873e-05 -2.32972e-05 -1.73551e-05 -1.46916e-05 -2.32972e-05 -2.46518e-05 
-1.84119e-05 -1.73551e-05 -2.46518e-05 -2.41339e-05 -1.80892e-05 -1.84119e-05 -2.41339e-05 -2.21311e-05 -1.65986e-05 
-1.80892e-05 -2.21311e-05 -1.89458e-05 -1.42487e-05 -1.65986e-05 -1.89458e-05 -1.49158e-05 -1.12067e-05 -1.42487e-05 
-1.49158e-05 -1.02585e-05 -7.72371e-06 -1.12067e-05 -1.02585e-05 -5.22659e-06 -3.9289e-06 -7.72371e-06 -5.22659e-06 
-9.81145e-17 -5.42456e-17 -3.9289e-06 -9.81145e-17 5.22659e-06 3.9289e-06 -5.42456e-17 5.22659e-06 1.02585e-05 
7.72371e-06 3.9289e-06 1.02585e-05 1.49158e-05 1.12067e-05 7.72371e-06 1.49158e-05 1.89458e-05 1.42487e-05 
1.12067e-05 1.89458e-05 2.21311e-05 1.65986e-05 1.42487e-05 2.21311e-05 2.41339e-05 1.80892e-05 1.65986e-05 
2.41339e-05 2.46518e-05 1.84119e-05 1.80892e-05 2.46518e-05 2.32972e-05 1.73551e-05 1.84119e-05 2.32972e-05 
1.97873e-05 1.46916e-05 1.73551e-05 1.97873e-05 1.4076e-05 1.04268e-05 1.46916e-05 1.4076e-05 6.81096e-06 
5.04554e-06 1.04268e-05 6.81096e-06 1.85263e-31 1.36265e-31 5.04554e-06 -1.36265e-31 -5.04554e-06 -1.67967e-06 
-4.34399e-32 -5.04554e-06 -1.04268e-05 -3.48072e-06 -1.67967e-06 -1.04268e-05 -1.46916e-05 -4.97117e-06 -3.48072e-06 
-1.46916e-05 -1.73551e-05 -5.97527e-06 -4.97117e-06 -1.73551e-05 -1.84119e-05 -6.45944e-06 -5.97527e-06 -1.84119e-05 
-1.80892e-05 -6.40791e-06 -6.45944e-06 -1.80892e-05 -1.65986e-05 -5.95844e-06 -6.40791e-06 -1.65986e-05 -1.42487e-05 
-5.1172e-06 -5.95844e-06 -1.42487e-05 -1.12067e-05 -4.05668e-06 -5.1172e-06 -1.12067e-05 -7.72371e-06 -2.7868e-06 